% Model:              Untitled.mph
% Version:            COMSOL 5.6.0.401
% Date:               Jan 11 2022, 18:04
% Dimension:          0
% Nodes:              1
% Expressions:        1500
% Description:        Frequency, Quality factor for eigenvalue, Total elastic strain energy
% solid.freq (Hz) @ lambda=1, m=0                  solid.Q_eig (1) @ lambda=1, m=0 solid.Ws_tot (J) @ lambda=1, m=0 solid.freq (Hz) @ lambda=2, m=0                   solid.Q_eig (1) @ lambda=2, m=0 solid.Ws_tot (J) @ lambda=2, m=0 solid.freq (Hz) @ lambda=3, m=0                   solid.Q_eig (1) @ lambda=3, m=0 solid.Ws_tot (J) @ lambda=3, m=0 solid.freq (Hz) @ lambda=4, m=0                   solid.Q_eig (1) @ lambda=4, m=0 solid.Ws_tot (J) @ lambda=4, m=0 solid.freq (Hz) @ lambda=5, m=0                   solid.Q_eig (1) @ lambda=5, m=0 solid.Ws_tot (J) @ lambda=5, m=0 solid.freq (Hz) @ lambda=6, m=0                   solid.Q_eig (1) @ lambda=6, m=0 solid.Ws_tot (J) @ lambda=6, m=0 solid.freq (Hz) @ lambda=7, m=0                   solid.Q_eig (1) @ lambda=7, m=0 solid.Ws_tot (J) @ lambda=7, m=0 solid.freq (Hz) @ lambda=8, m=0                   solid.Q_eig (1) @ lambda=8, m=0 solid.Ws_tot (J) @ lambda=8, m=0 solid.freq (Hz) @ lambda=9, m=0                   solid.Q_eig (1) @ lambda=9, m=0 solid.Ws_tot (J) @ lambda=9, m=0 solid.freq (Hz) @ lambda=10, m=0                  solid.Q_eig (1) @ lambda=10, m=0 solid.Ws_tot (J) @ lambda=10, m=0 solid.freq (Hz) @ lambda=11, m=0                  solid.Q_eig (1) @ lambda=11, m=0 solid.Ws_tot (J) @ lambda=11, m=0 solid.freq (Hz) @ lambda=12, m=0                  solid.Q_eig (1) @ lambda=12, m=0 solid.Ws_tot (J) @ lambda=12, m=0 solid.freq (Hz) @ lambda=13, m=0                  solid.Q_eig (1) @ lambda=13, m=0 solid.Ws_tot (J) @ lambda=13, m=0 solid.freq (Hz) @ lambda=14, m=0                  solid.Q_eig (1) @ lambda=14, m=0 solid.Ws_tot (J) @ lambda=14, m=0 solid.freq (Hz) @ lambda=15, m=0                  solid.Q_eig (1) @ lambda=15, m=0 solid.Ws_tot (J) @ lambda=15, m=0 solid.freq (Hz) @ lambda=16, m=0                  solid.Q_eig (1) @ lambda=16, m=0 solid.Ws_tot (J) @ lambda=16, m=0 solid.freq (Hz) @ lambda=17, m=0                  solid.Q_eig (1) @ lambda=17, m=0 solid.Ws_tot (J) @ lambda=17, m=0 solid.freq (Hz) @ lambda=18, m=0                  solid.Q_eig (1) @ lambda=18, m=0 solid.Ws_tot (J) @ lambda=18, m=0 solid.freq (Hz) @ lambda=19, m=0                  solid.Q_eig (1) @ lambda=19, m=0 solid.Ws_tot (J) @ lambda=19, m=0 solid.freq (Hz) @ lambda=20, m=0                  solid.Q_eig (1) @ lambda=20, m=0 solid.Ws_tot (J) @ lambda=20, m=0 solid.freq (Hz) @ lambda=21, m=0                  solid.Q_eig (1) @ lambda=21, m=0 solid.Ws_tot (J) @ lambda=21, m=0 solid.freq (Hz) @ lambda=22, m=0                  solid.Q_eig (1) @ lambda=22, m=0 solid.Ws_tot (J) @ lambda=22, m=0 solid.freq (Hz) @ lambda=23, m=0                  solid.Q_eig (1) @ lambda=23, m=0 solid.Ws_tot (J) @ lambda=23, m=0 solid.freq (Hz) @ lambda=24, m=0                  solid.Q_eig (1) @ lambda=24, m=0 solid.Ws_tot (J) @ lambda=24, m=0 solid.freq (Hz) @ lambda=25, m=0                  solid.Q_eig (1) @ lambda=25, m=0 solid.Ws_tot (J) @ lambda=25, m=0 solid.freq (Hz) @ lambda=26, m=0                  solid.Q_eig (1) @ lambda=26, m=0 solid.Ws_tot (J) @ lambda=26, m=0 solid.freq (Hz) @ lambda=27, m=0                  solid.Q_eig (1) @ lambda=27, m=0 solid.Ws_tot (J) @ lambda=27, m=0 solid.freq (Hz) @ lambda=28, m=0                  solid.Q_eig (1) @ lambda=28, m=0 solid.Ws_tot (J) @ lambda=28, m=0 solid.freq (Hz) @ lambda=29, m=0                  solid.Q_eig (1) @ lambda=29, m=0 solid.Ws_tot (J) @ lambda=29, m=0 solid.freq (Hz) @ lambda=30, m=0                  solid.Q_eig (1) @ lambda=30, m=0 solid.Ws_tot (J) @ lambda=30, m=0 solid.freq (Hz) @ lambda=31, m=0                  solid.Q_eig (1) @ lambda=31, m=0 solid.Ws_tot (J) @ lambda=31, m=0 solid.freq (Hz) @ lambda=32, m=0                  solid.Q_eig (1) @ lambda=32, m=0 solid.Ws_tot (J) @ lambda=32, m=0 solid.freq (Hz) @ lambda=33, m=0                  solid.Q_eig (1) @ lambda=33, m=0 solid.Ws_tot (J) @ lambda=33, m=0 solid.freq (Hz) @ lambda=34, m=0                  solid.Q_eig (1) @ lambda=34, m=0 solid.Ws_tot (J) @ lambda=34, m=0 solid.freq (Hz) @ lambda=35, m=0                  solid.Q_eig (1) @ lambda=35, m=0 solid.Ws_tot (J) @ lambda=35, m=0 solid.freq (Hz) @ lambda=36, m=0                  solid.Q_eig (1) @ lambda=36, m=0 solid.Ws_tot (J) @ lambda=36, m=0 solid.freq (Hz) @ lambda=37, m=0                  solid.Q_eig (1) @ lambda=37, m=0 solid.Ws_tot (J) @ lambda=37, m=0 solid.freq (Hz) @ lambda=38, m=0                  solid.Q_eig (1) @ lambda=38, m=0 solid.Ws_tot (J) @ lambda=38, m=0 solid.freq (Hz) @ lambda=39, m=0                  solid.Q_eig (1) @ lambda=39, m=0 solid.Ws_tot (J) @ lambda=39, m=0 solid.freq (Hz) @ lambda=40, m=0                  solid.Q_eig (1) @ lambda=40, m=0 solid.Ws_tot (J) @ lambda=40, m=0 solid.freq (Hz) @ lambda=41, m=0                  solid.Q_eig (1) @ lambda=41, m=0 solid.Ws_tot (J) @ lambda=41, m=0 solid.freq (Hz) @ lambda=42, m=0                  solid.Q_eig (1) @ lambda=42, m=0 solid.Ws_tot (J) @ lambda=42, m=0 solid.freq (Hz) @ lambda=43, m=0                  solid.Q_eig (1) @ lambda=43, m=0 solid.Ws_tot (J) @ lambda=43, m=0 solid.freq (Hz) @ lambda=44, m=0                  solid.Q_eig (1) @ lambda=44, m=0 solid.Ws_tot (J) @ lambda=44, m=0 solid.freq (Hz) @ lambda=45, m=0                  solid.Q_eig (1) @ lambda=45, m=0 solid.Ws_tot (J) @ lambda=45, m=0 solid.freq (Hz) @ lambda=46, m=0                  solid.Q_eig (1) @ lambda=46, m=0 solid.Ws_tot (J) @ lambda=46, m=0 solid.freq (Hz) @ lambda=47, m=0                  solid.Q_eig (1) @ lambda=47, m=0 solid.Ws_tot (J) @ lambda=47, m=0 solid.freq (Hz) @ lambda=48, m=0                  solid.Q_eig (1) @ lambda=48, m=0 solid.Ws_tot (J) @ lambda=48, m=0 solid.freq (Hz) @ lambda=49, m=0                  solid.Q_eig (1) @ lambda=49, m=0 solid.Ws_tot (J) @ lambda=49, m=0 solid.freq (Hz) @ lambda=50, m=0                  solid.Q_eig (1) @ lambda=50, m=0 solid.Ws_tot (J) @ lambda=50, m=0 solid.freq (Hz) @ lambda=51, m=0                  solid.Q_eig (1) @ lambda=51, m=0 solid.Ws_tot (J) @ lambda=51, m=0 solid.freq (Hz) @ lambda=52, m=0                  solid.Q_eig (1) @ lambda=52, m=0 solid.Ws_tot (J) @ lambda=52, m=0 solid.freq (Hz) @ lambda=53, m=0                  solid.Q_eig (1) @ lambda=53, m=0 solid.Ws_tot (J) @ lambda=53, m=0 solid.freq (Hz) @ lambda=54, m=0                  solid.Q_eig (1) @ lambda=54, m=0 solid.Ws_tot (J) @ lambda=54, m=0 solid.freq (Hz) @ lambda=55, m=0                  solid.Q_eig (1) @ lambda=55, m=0 solid.Ws_tot (J) @ lambda=55, m=0 solid.freq (Hz) @ lambda=56, m=0                  solid.Q_eig (1) @ lambda=56, m=0 solid.Ws_tot (J) @ lambda=56, m=0 solid.freq (Hz) @ lambda=57, m=0                  solid.Q_eig (1) @ lambda=57, m=0 solid.Ws_tot (J) @ lambda=57, m=0 solid.freq (Hz) @ lambda=58, m=0                  solid.Q_eig (1) @ lambda=58, m=0 solid.Ws_tot (J) @ lambda=58, m=0 solid.freq (Hz) @ lambda=59, m=0                  solid.Q_eig (1) @ lambda=59, m=0 solid.Ws_tot (J) @ lambda=59, m=0 solid.freq (Hz) @ lambda=60, m=0                  solid.Q_eig (1) @ lambda=60, m=0 solid.Ws_tot (J) @ lambda=60, m=0 solid.freq (Hz) @ lambda=61, m=0                  solid.Q_eig (1) @ lambda=61, m=0 solid.Ws_tot (J) @ lambda=61, m=0 solid.freq (Hz) @ lambda=62, m=0                  solid.Q_eig (1) @ lambda=62, m=0 solid.Ws_tot (J) @ lambda=62, m=0 solid.freq (Hz) @ lambda=63, m=0                  solid.Q_eig (1) @ lambda=63, m=0 solid.Ws_tot (J) @ lambda=63, m=0 solid.freq (Hz) @ lambda=64, m=0                  solid.Q_eig (1) @ lambda=64, m=0 solid.Ws_tot (J) @ lambda=64, m=0 solid.freq (Hz) @ lambda=65, m=0                  solid.Q_eig (1) @ lambda=65, m=0 solid.Ws_tot (J) @ lambda=65, m=0 solid.freq (Hz) @ lambda=66, m=0                  solid.Q_eig (1) @ lambda=66, m=0 solid.Ws_tot (J) @ lambda=66, m=0 solid.freq (Hz) @ lambda=67, m=0                  solid.Q_eig (1) @ lambda=67, m=0 solid.Ws_tot (J) @ lambda=67, m=0 solid.freq (Hz) @ lambda=68, m=0                  solid.Q_eig (1) @ lambda=68, m=0 solid.Ws_tot (J) @ lambda=68, m=0 solid.freq (Hz) @ lambda=69, m=0                  solid.Q_eig (1) @ lambda=69, m=0 solid.Ws_tot (J) @ lambda=69, m=0 solid.freq (Hz) @ lambda=70, m=0                  solid.Q_eig (1) @ lambda=70, m=0 solid.Ws_tot (J) @ lambda=70, m=0 solid.freq (Hz) @ lambda=71, m=0                  solid.Q_eig (1) @ lambda=71, m=0 solid.Ws_tot (J) @ lambda=71, m=0 solid.freq (Hz) @ lambda=72, m=0                  solid.Q_eig (1) @ lambda=72, m=0 solid.Ws_tot (J) @ lambda=72, m=0 solid.freq (Hz) @ lambda=73, m=0                  solid.Q_eig (1) @ lambda=73, m=0 solid.Ws_tot (J) @ lambda=73, m=0 solid.freq (Hz) @ lambda=74, m=0                  solid.Q_eig (1) @ lambda=74, m=0 solid.Ws_tot (J) @ lambda=74, m=0 solid.freq (Hz) @ lambda=75, m=0                  solid.Q_eig (1) @ lambda=75, m=0 solid.Ws_tot (J) @ lambda=75, m=0 solid.freq (Hz) @ lambda=76, m=0                  solid.Q_eig (1) @ lambda=76, m=0 solid.Ws_tot (J) @ lambda=76, m=0 solid.freq (Hz) @ lambda=77, m=0                  solid.Q_eig (1) @ lambda=77, m=0 solid.Ws_tot (J) @ lambda=77, m=0 solid.freq (Hz) @ lambda=78, m=0                  solid.Q_eig (1) @ lambda=78, m=0 solid.Ws_tot (J) @ lambda=78, m=0 solid.freq (Hz) @ lambda=79, m=0                  solid.Q_eig (1) @ lambda=79, m=0 solid.Ws_tot (J) @ lambda=79, m=0 solid.freq (Hz) @ lambda=80, m=0                  solid.Q_eig (1) @ lambda=80, m=0 solid.Ws_tot (J) @ lambda=80, m=0 solid.freq (Hz) @ lambda=81, m=0                  solid.Q_eig (1) @ lambda=81, m=0 solid.Ws_tot (J) @ lambda=81, m=0 solid.freq (Hz) @ lambda=82, m=0                  solid.Q_eig (1) @ lambda=82, m=0 solid.Ws_tot (J) @ lambda=82, m=0 solid.freq (Hz) @ lambda=83, m=0                  solid.Q_eig (1) @ lambda=83, m=0 solid.Ws_tot (J) @ lambda=83, m=0 solid.freq (Hz) @ lambda=84, m=0                  solid.Q_eig (1) @ lambda=84, m=0 solid.Ws_tot (J) @ lambda=84, m=0 solid.freq (Hz) @ lambda=85, m=0                  solid.Q_eig (1) @ lambda=85, m=0 solid.Ws_tot (J) @ lambda=85, m=0 solid.freq (Hz) @ lambda=86, m=0                  solid.Q_eig (1) @ lambda=86, m=0 solid.Ws_tot (J) @ lambda=86, m=0 solid.freq (Hz) @ lambda=87, m=0                  solid.Q_eig (1) @ lambda=87, m=0 solid.Ws_tot (J) @ lambda=87, m=0 solid.freq (Hz) @ lambda=88, m=0                  solid.Q_eig (1) @ lambda=88, m=0 solid.Ws_tot (J) @ lambda=88, m=0 solid.freq (Hz) @ lambda=89, m=0                  solid.Q_eig (1) @ lambda=89, m=0 solid.Ws_tot (J) @ lambda=89, m=0 solid.freq (Hz) @ lambda=90, m=0                  solid.Q_eig (1) @ lambda=90, m=0 solid.Ws_tot (J) @ lambda=90, m=0 solid.freq (Hz) @ lambda=91, m=0                  solid.Q_eig (1) @ lambda=91, m=0 solid.Ws_tot (J) @ lambda=91, m=0 solid.freq (Hz) @ lambda=92, m=0                  solid.Q_eig (1) @ lambda=92, m=0 solid.Ws_tot (J) @ lambda=92, m=0 solid.freq (Hz) @ lambda=93, m=0                  solid.Q_eig (1) @ lambda=93, m=0 solid.Ws_tot (J) @ lambda=93, m=0 solid.freq (Hz) @ lambda=94, m=0                  solid.Q_eig (1) @ lambda=94, m=0 solid.Ws_tot (J) @ lambda=94, m=0 solid.freq (Hz) @ lambda=95, m=0                  solid.Q_eig (1) @ lambda=95, m=0 solid.Ws_tot (J) @ lambda=95, m=0 solid.freq (Hz) @ lambda=96, m=0                  solid.Q_eig (1) @ lambda=96, m=0 solid.Ws_tot (J) @ lambda=96, m=0 solid.freq (Hz) @ lambda=97, m=0                  solid.Q_eig (1) @ lambda=97, m=0 solid.Ws_tot (J) @ lambda=97, m=0 solid.freq (Hz) @ lambda=98, m=0                  solid.Q_eig (1) @ lambda=98, m=0 solid.Ws_tot (J) @ lambda=98, m=0 solid.freq (Hz) @ lambda=99, m=0                  solid.Q_eig (1) @ lambda=99, m=0 solid.Ws_tot (J) @ lambda=99, m=0 solid.freq (Hz) @ lambda=100, m=0                 solid.Q_eig (1) @ lambda=100, m=0 solid.Ws_tot (J) @ lambda=100, m=0 solid.freq (Hz) @ lambda=1, m=1                   solid.Q_eig (1) @ lambda=1, m=1 solid.Ws_tot (J) @ lambda=1, m=1 solid.freq (Hz) @ lambda=2, m=1                   solid.Q_eig (1) @ lambda=2, m=1 solid.Ws_tot (J) @ lambda=2, m=1 solid.freq (Hz) @ lambda=3, m=1                   solid.Q_eig (1) @ lambda=3, m=1 solid.Ws_tot (J) @ lambda=3, m=1 solid.freq (Hz) @ lambda=4, m=1                   solid.Q_eig (1) @ lambda=4, m=1 solid.Ws_tot (J) @ lambda=4, m=1 solid.freq (Hz) @ lambda=5, m=1                   solid.Q_eig (1) @ lambda=5, m=1 solid.Ws_tot (J) @ lambda=5, m=1 solid.freq (Hz) @ lambda=6, m=1                   solid.Q_eig (1) @ lambda=6, m=1 solid.Ws_tot (J) @ lambda=6, m=1 solid.freq (Hz) @ lambda=7, m=1                   solid.Q_eig (1) @ lambda=7, m=1 solid.Ws_tot (J) @ lambda=7, m=1 solid.freq (Hz) @ lambda=8, m=1                   solid.Q_eig (1) @ lambda=8, m=1 solid.Ws_tot (J) @ lambda=8, m=1 solid.freq (Hz) @ lambda=9, m=1                   solid.Q_eig (1) @ lambda=9, m=1 solid.Ws_tot (J) @ lambda=9, m=1 solid.freq (Hz) @ lambda=10, m=1                  solid.Q_eig (1) @ lambda=10, m=1 solid.Ws_tot (J) @ lambda=10, m=1 solid.freq (Hz) @ lambda=11, m=1                  solid.Q_eig (1) @ lambda=11, m=1 solid.Ws_tot (J) @ lambda=11, m=1 solid.freq (Hz) @ lambda=12, m=1                  solid.Q_eig (1) @ lambda=12, m=1 solid.Ws_tot (J) @ lambda=12, m=1 solid.freq (Hz) @ lambda=13, m=1                  solid.Q_eig (1) @ lambda=13, m=1 solid.Ws_tot (J) @ lambda=13, m=1 solid.freq (Hz) @ lambda=14, m=1                  solid.Q_eig (1) @ lambda=14, m=1 solid.Ws_tot (J) @ lambda=14, m=1 solid.freq (Hz) @ lambda=15, m=1                  solid.Q_eig (1) @ lambda=15, m=1 solid.Ws_tot (J) @ lambda=15, m=1 solid.freq (Hz) @ lambda=16, m=1                  solid.Q_eig (1) @ lambda=16, m=1 solid.Ws_tot (J) @ lambda=16, m=1 solid.freq (Hz) @ lambda=17, m=1                  solid.Q_eig (1) @ lambda=17, m=1 solid.Ws_tot (J) @ lambda=17, m=1 solid.freq (Hz) @ lambda=18, m=1                  solid.Q_eig (1) @ lambda=18, m=1 solid.Ws_tot (J) @ lambda=18, m=1 solid.freq (Hz) @ lambda=19, m=1                  solid.Q_eig (1) @ lambda=19, m=1 solid.Ws_tot (J) @ lambda=19, m=1 solid.freq (Hz) @ lambda=20, m=1                  solid.Q_eig (1) @ lambda=20, m=1 solid.Ws_tot (J) @ lambda=20, m=1 solid.freq (Hz) @ lambda=21, m=1                  solid.Q_eig (1) @ lambda=21, m=1 solid.Ws_tot (J) @ lambda=21, m=1 solid.freq (Hz) @ lambda=22, m=1                  solid.Q_eig (1) @ lambda=22, m=1 solid.Ws_tot (J) @ lambda=22, m=1 solid.freq (Hz) @ lambda=23, m=1                  solid.Q_eig (1) @ lambda=23, m=1 solid.Ws_tot (J) @ lambda=23, m=1 solid.freq (Hz) @ lambda=24, m=1                  solid.Q_eig (1) @ lambda=24, m=1 solid.Ws_tot (J) @ lambda=24, m=1 solid.freq (Hz) @ lambda=25, m=1                  solid.Q_eig (1) @ lambda=25, m=1 solid.Ws_tot (J) @ lambda=25, m=1 solid.freq (Hz) @ lambda=26, m=1                  solid.Q_eig (1) @ lambda=26, m=1 solid.Ws_tot (J) @ lambda=26, m=1 solid.freq (Hz) @ lambda=27, m=1                  solid.Q_eig (1) @ lambda=27, m=1 solid.Ws_tot (J) @ lambda=27, m=1 solid.freq (Hz) @ lambda=28, m=1                  solid.Q_eig (1) @ lambda=28, m=1 solid.Ws_tot (J) @ lambda=28, m=1 solid.freq (Hz) @ lambda=29, m=1                  solid.Q_eig (1) @ lambda=29, m=1 solid.Ws_tot (J) @ lambda=29, m=1 solid.freq (Hz) @ lambda=30, m=1                  solid.Q_eig (1) @ lambda=30, m=1 solid.Ws_tot (J) @ lambda=30, m=1 solid.freq (Hz) @ lambda=31, m=1                  solid.Q_eig (1) @ lambda=31, m=1 solid.Ws_tot (J) @ lambda=31, m=1 solid.freq (Hz) @ lambda=32, m=1                  solid.Q_eig (1) @ lambda=32, m=1 solid.Ws_tot (J) @ lambda=32, m=1 solid.freq (Hz) @ lambda=33, m=1                  solid.Q_eig (1) @ lambda=33, m=1 solid.Ws_tot (J) @ lambda=33, m=1 solid.freq (Hz) @ lambda=34, m=1                  solid.Q_eig (1) @ lambda=34, m=1 solid.Ws_tot (J) @ lambda=34, m=1 solid.freq (Hz) @ lambda=35, m=1                  solid.Q_eig (1) @ lambda=35, m=1 solid.Ws_tot (J) @ lambda=35, m=1 solid.freq (Hz) @ lambda=36, m=1                  solid.Q_eig (1) @ lambda=36, m=1 solid.Ws_tot (J) @ lambda=36, m=1 solid.freq (Hz) @ lambda=37, m=1                  solid.Q_eig (1) @ lambda=37, m=1 solid.Ws_tot (J) @ lambda=37, m=1 solid.freq (Hz) @ lambda=38, m=1                  solid.Q_eig (1) @ lambda=38, m=1 solid.Ws_tot (J) @ lambda=38, m=1 solid.freq (Hz) @ lambda=39, m=1                  solid.Q_eig (1) @ lambda=39, m=1 solid.Ws_tot (J) @ lambda=39, m=1 solid.freq (Hz) @ lambda=40, m=1                  solid.Q_eig (1) @ lambda=40, m=1 solid.Ws_tot (J) @ lambda=40, m=1 solid.freq (Hz) @ lambda=41, m=1                  solid.Q_eig (1) @ lambda=41, m=1 solid.Ws_tot (J) @ lambda=41, m=1 solid.freq (Hz) @ lambda=42, m=1                  solid.Q_eig (1) @ lambda=42, m=1 solid.Ws_tot (J) @ lambda=42, m=1 solid.freq (Hz) @ lambda=43, m=1                  solid.Q_eig (1) @ lambda=43, m=1 solid.Ws_tot (J) @ lambda=43, m=1 solid.freq (Hz) @ lambda=44, m=1                  solid.Q_eig (1) @ lambda=44, m=1 solid.Ws_tot (J) @ lambda=44, m=1 solid.freq (Hz) @ lambda=45, m=1                  solid.Q_eig (1) @ lambda=45, m=1 solid.Ws_tot (J) @ lambda=45, m=1 solid.freq (Hz) @ lambda=46, m=1                  solid.Q_eig (1) @ lambda=46, m=1 solid.Ws_tot (J) @ lambda=46, m=1 solid.freq (Hz) @ lambda=47, m=1                  solid.Q_eig (1) @ lambda=47, m=1 solid.Ws_tot (J) @ lambda=47, m=1 solid.freq (Hz) @ lambda=48, m=1                  solid.Q_eig (1) @ lambda=48, m=1 solid.Ws_tot (J) @ lambda=48, m=1 solid.freq (Hz) @ lambda=49, m=1                  solid.Q_eig (1) @ lambda=49, m=1 solid.Ws_tot (J) @ lambda=49, m=1 solid.freq (Hz) @ lambda=50, m=1                  solid.Q_eig (1) @ lambda=50, m=1 solid.Ws_tot (J) @ lambda=50, m=1 solid.freq (Hz) @ lambda=51, m=1                  solid.Q_eig (1) @ lambda=51, m=1 solid.Ws_tot (J) @ lambda=51, m=1 solid.freq (Hz) @ lambda=52, m=1                  solid.Q_eig (1) @ lambda=52, m=1 solid.Ws_tot (J) @ lambda=52, m=1 solid.freq (Hz) @ lambda=53, m=1                  solid.Q_eig (1) @ lambda=53, m=1 solid.Ws_tot (J) @ lambda=53, m=1 solid.freq (Hz) @ lambda=54, m=1                  solid.Q_eig (1) @ lambda=54, m=1 solid.Ws_tot (J) @ lambda=54, m=1 solid.freq (Hz) @ lambda=55, m=1                  solid.Q_eig (1) @ lambda=55, m=1 solid.Ws_tot (J) @ lambda=55, m=1 solid.freq (Hz) @ lambda=56, m=1                  solid.Q_eig (1) @ lambda=56, m=1 solid.Ws_tot (J) @ lambda=56, m=1 solid.freq (Hz) @ lambda=57, m=1                  solid.Q_eig (1) @ lambda=57, m=1 solid.Ws_tot (J) @ lambda=57, m=1 solid.freq (Hz) @ lambda=58, m=1                  solid.Q_eig (1) @ lambda=58, m=1 solid.Ws_tot (J) @ lambda=58, m=1 solid.freq (Hz) @ lambda=59, m=1                  solid.Q_eig (1) @ lambda=59, m=1 solid.Ws_tot (J) @ lambda=59, m=1 solid.freq (Hz) @ lambda=60, m=1                  solid.Q_eig (1) @ lambda=60, m=1 solid.Ws_tot (J) @ lambda=60, m=1 solid.freq (Hz) @ lambda=61, m=1                  solid.Q_eig (1) @ lambda=61, m=1 solid.Ws_tot (J) @ lambda=61, m=1 solid.freq (Hz) @ lambda=62, m=1                  solid.Q_eig (1) @ lambda=62, m=1 solid.Ws_tot (J) @ lambda=62, m=1 solid.freq (Hz) @ lambda=63, m=1                  solid.Q_eig (1) @ lambda=63, m=1 solid.Ws_tot (J) @ lambda=63, m=1 solid.freq (Hz) @ lambda=64, m=1                  solid.Q_eig (1) @ lambda=64, m=1 solid.Ws_tot (J) @ lambda=64, m=1 solid.freq (Hz) @ lambda=65, m=1                  solid.Q_eig (1) @ lambda=65, m=1 solid.Ws_tot (J) @ lambda=65, m=1 solid.freq (Hz) @ lambda=66, m=1                  solid.Q_eig (1) @ lambda=66, m=1 solid.Ws_tot (J) @ lambda=66, m=1 solid.freq (Hz) @ lambda=67, m=1                  solid.Q_eig (1) @ lambda=67, m=1 solid.Ws_tot (J) @ lambda=67, m=1 solid.freq (Hz) @ lambda=68, m=1                  solid.Q_eig (1) @ lambda=68, m=1 solid.Ws_tot (J) @ lambda=68, m=1 solid.freq (Hz) @ lambda=69, m=1                  solid.Q_eig (1) @ lambda=69, m=1 solid.Ws_tot (J) @ lambda=69, m=1 solid.freq (Hz) @ lambda=70, m=1                  solid.Q_eig (1) @ lambda=70, m=1 solid.Ws_tot (J) @ lambda=70, m=1 solid.freq (Hz) @ lambda=71, m=1                  solid.Q_eig (1) @ lambda=71, m=1 solid.Ws_tot (J) @ lambda=71, m=1 solid.freq (Hz) @ lambda=72, m=1                  solid.Q_eig (1) @ lambda=72, m=1 solid.Ws_tot (J) @ lambda=72, m=1 solid.freq (Hz) @ lambda=73, m=1                  solid.Q_eig (1) @ lambda=73, m=1 solid.Ws_tot (J) @ lambda=73, m=1 solid.freq (Hz) @ lambda=74, m=1                  solid.Q_eig (1) @ lambda=74, m=1 solid.Ws_tot (J) @ lambda=74, m=1 solid.freq (Hz) @ lambda=75, m=1                  solid.Q_eig (1) @ lambda=75, m=1 solid.Ws_tot (J) @ lambda=75, m=1 solid.freq (Hz) @ lambda=76, m=1                  solid.Q_eig (1) @ lambda=76, m=1 solid.Ws_tot (J) @ lambda=76, m=1 solid.freq (Hz) @ lambda=77, m=1                  solid.Q_eig (1) @ lambda=77, m=1 solid.Ws_tot (J) @ lambda=77, m=1 solid.freq (Hz) @ lambda=78, m=1                  solid.Q_eig (1) @ lambda=78, m=1 solid.Ws_tot (J) @ lambda=78, m=1 solid.freq (Hz) @ lambda=79, m=1                  solid.Q_eig (1) @ lambda=79, m=1 solid.Ws_tot (J) @ lambda=79, m=1 solid.freq (Hz) @ lambda=80, m=1                  solid.Q_eig (1) @ lambda=80, m=1 solid.Ws_tot (J) @ lambda=80, m=1 solid.freq (Hz) @ lambda=81, m=1                  solid.Q_eig (1) @ lambda=81, m=1 solid.Ws_tot (J) @ lambda=81, m=1 solid.freq (Hz) @ lambda=82, m=1                  solid.Q_eig (1) @ lambda=82, m=1 solid.Ws_tot (J) @ lambda=82, m=1 solid.freq (Hz) @ lambda=83, m=1                  solid.Q_eig (1) @ lambda=83, m=1 solid.Ws_tot (J) @ lambda=83, m=1 solid.freq (Hz) @ lambda=84, m=1                  solid.Q_eig (1) @ lambda=84, m=1 solid.Ws_tot (J) @ lambda=84, m=1 solid.freq (Hz) @ lambda=85, m=1                  solid.Q_eig (1) @ lambda=85, m=1 solid.Ws_tot (J) @ lambda=85, m=1 solid.freq (Hz) @ lambda=86, m=1                  solid.Q_eig (1) @ lambda=86, m=1 solid.Ws_tot (J) @ lambda=86, m=1 solid.freq (Hz) @ lambda=87, m=1                  solid.Q_eig (1) @ lambda=87, m=1 solid.Ws_tot (J) @ lambda=87, m=1 solid.freq (Hz) @ lambda=88, m=1                  solid.Q_eig (1) @ lambda=88, m=1 solid.Ws_tot (J) @ lambda=88, m=1 solid.freq (Hz) @ lambda=89, m=1                  solid.Q_eig (1) @ lambda=89, m=1 solid.Ws_tot (J) @ lambda=89, m=1 solid.freq (Hz) @ lambda=90, m=1                  solid.Q_eig (1) @ lambda=90, m=1 solid.Ws_tot (J) @ lambda=90, m=1 solid.freq (Hz) @ lambda=91, m=1                  solid.Q_eig (1) @ lambda=91, m=1 solid.Ws_tot (J) @ lambda=91, m=1 solid.freq (Hz) @ lambda=92, m=1                  solid.Q_eig (1) @ lambda=92, m=1 solid.Ws_tot (J) @ lambda=92, m=1 solid.freq (Hz) @ lambda=93, m=1                  solid.Q_eig (1) @ lambda=93, m=1 solid.Ws_tot (J) @ lambda=93, m=1 solid.freq (Hz) @ lambda=94, m=1                  solid.Q_eig (1) @ lambda=94, m=1 solid.Ws_tot (J) @ lambda=94, m=1 solid.freq (Hz) @ lambda=95, m=1                  solid.Q_eig (1) @ lambda=95, m=1 solid.Ws_tot (J) @ lambda=95, m=1 solid.freq (Hz) @ lambda=96, m=1                  solid.Q_eig (1) @ lambda=96, m=1 solid.Ws_tot (J) @ lambda=96, m=1 solid.freq (Hz) @ lambda=97, m=1                  solid.Q_eig (1) @ lambda=97, m=1 solid.Ws_tot (J) @ lambda=97, m=1 solid.freq (Hz) @ lambda=98, m=1                  solid.Q_eig (1) @ lambda=98, m=1 solid.Ws_tot (J) @ lambda=98, m=1 solid.freq (Hz) @ lambda=99, m=1                  solid.Q_eig (1) @ lambda=99, m=1 solid.Ws_tot (J) @ lambda=99, m=1 solid.freq (Hz) @ lambda=100, m=1                 solid.Q_eig (1) @ lambda=100, m=1 solid.Ws_tot (J) @ lambda=100, m=1 solid.freq (Hz) @ lambda=1, m=2                   solid.Q_eig (1) @ lambda=1, m=2 solid.Ws_tot (J) @ lambda=1, m=2 solid.freq (Hz) @ lambda=2, m=2                   solid.Q_eig (1) @ lambda=2, m=2 solid.Ws_tot (J) @ lambda=2, m=2 solid.freq (Hz) @ lambda=3, m=2                   solid.Q_eig (1) @ lambda=3, m=2 solid.Ws_tot (J) @ lambda=3, m=2 solid.freq (Hz) @ lambda=4, m=2                   solid.Q_eig (1) @ lambda=4, m=2 solid.Ws_tot (J) @ lambda=4, m=2 solid.freq (Hz) @ lambda=5, m=2                   solid.Q_eig (1) @ lambda=5, m=2 solid.Ws_tot (J) @ lambda=5, m=2 solid.freq (Hz) @ lambda=6, m=2                   solid.Q_eig (1) @ lambda=6, m=2 solid.Ws_tot (J) @ lambda=6, m=2 solid.freq (Hz) @ lambda=7, m=2                   solid.Q_eig (1) @ lambda=7, m=2 solid.Ws_tot (J) @ lambda=7, m=2 solid.freq (Hz) @ lambda=8, m=2                   solid.Q_eig (1) @ lambda=8, m=2 solid.Ws_tot (J) @ lambda=8, m=2 solid.freq (Hz) @ lambda=9, m=2                   solid.Q_eig (1) @ lambda=9, m=2 solid.Ws_tot (J) @ lambda=9, m=2 solid.freq (Hz) @ lambda=10, m=2                  solid.Q_eig (1) @ lambda=10, m=2 solid.Ws_tot (J) @ lambda=10, m=2 solid.freq (Hz) @ lambda=11, m=2                  solid.Q_eig (1) @ lambda=11, m=2 solid.Ws_tot (J) @ lambda=11, m=2 solid.freq (Hz) @ lambda=12, m=2                  solid.Q_eig (1) @ lambda=12, m=2 solid.Ws_tot (J) @ lambda=12, m=2 solid.freq (Hz) @ lambda=13, m=2                  solid.Q_eig (1) @ lambda=13, m=2 solid.Ws_tot (J) @ lambda=13, m=2 solid.freq (Hz) @ lambda=14, m=2                  solid.Q_eig (1) @ lambda=14, m=2 solid.Ws_tot (J) @ lambda=14, m=2 solid.freq (Hz) @ lambda=15, m=2                  solid.Q_eig (1) @ lambda=15, m=2 solid.Ws_tot (J) @ lambda=15, m=2 solid.freq (Hz) @ lambda=16, m=2                  solid.Q_eig (1) @ lambda=16, m=2 solid.Ws_tot (J) @ lambda=16, m=2 solid.freq (Hz) @ lambda=17, m=2                  solid.Q_eig (1) @ lambda=17, m=2 solid.Ws_tot (J) @ lambda=17, m=2 solid.freq (Hz) @ lambda=18, m=2                  solid.Q_eig (1) @ lambda=18, m=2 solid.Ws_tot (J) @ lambda=18, m=2 solid.freq (Hz) @ lambda=19, m=2                  solid.Q_eig (1) @ lambda=19, m=2 solid.Ws_tot (J) @ lambda=19, m=2 solid.freq (Hz) @ lambda=20, m=2                  solid.Q_eig (1) @ lambda=20, m=2 solid.Ws_tot (J) @ lambda=20, m=2 solid.freq (Hz) @ lambda=21, m=2                  solid.Q_eig (1) @ lambda=21, m=2 solid.Ws_tot (J) @ lambda=21, m=2 solid.freq (Hz) @ lambda=22, m=2                  solid.Q_eig (1) @ lambda=22, m=2 solid.Ws_tot (J) @ lambda=22, m=2 solid.freq (Hz) @ lambda=23, m=2                  solid.Q_eig (1) @ lambda=23, m=2 solid.Ws_tot (J) @ lambda=23, m=2 solid.freq (Hz) @ lambda=24, m=2                  solid.Q_eig (1) @ lambda=24, m=2 solid.Ws_tot (J) @ lambda=24, m=2 solid.freq (Hz) @ lambda=25, m=2                  solid.Q_eig (1) @ lambda=25, m=2 solid.Ws_tot (J) @ lambda=25, m=2 solid.freq (Hz) @ lambda=26, m=2                  solid.Q_eig (1) @ lambda=26, m=2 solid.Ws_tot (J) @ lambda=26, m=2 solid.freq (Hz) @ lambda=27, m=2                  solid.Q_eig (1) @ lambda=27, m=2 solid.Ws_tot (J) @ lambda=27, m=2 solid.freq (Hz) @ lambda=28, m=2                  solid.Q_eig (1) @ lambda=28, m=2 solid.Ws_tot (J) @ lambda=28, m=2 solid.freq (Hz) @ lambda=29, m=2                  solid.Q_eig (1) @ lambda=29, m=2 solid.Ws_tot (J) @ lambda=29, m=2 solid.freq (Hz) @ lambda=30, m=2                  solid.Q_eig (1) @ lambda=30, m=2 solid.Ws_tot (J) @ lambda=30, m=2 solid.freq (Hz) @ lambda=31, m=2                  solid.Q_eig (1) @ lambda=31, m=2 solid.Ws_tot (J) @ lambda=31, m=2 solid.freq (Hz) @ lambda=32, m=2                  solid.Q_eig (1) @ lambda=32, m=2 solid.Ws_tot (J) @ lambda=32, m=2 solid.freq (Hz) @ lambda=33, m=2                  solid.Q_eig (1) @ lambda=33, m=2 solid.Ws_tot (J) @ lambda=33, m=2 solid.freq (Hz) @ lambda=34, m=2                  solid.Q_eig (1) @ lambda=34, m=2 solid.Ws_tot (J) @ lambda=34, m=2 solid.freq (Hz) @ lambda=35, m=2                  solid.Q_eig (1) @ lambda=35, m=2 solid.Ws_tot (J) @ lambda=35, m=2 solid.freq (Hz) @ lambda=36, m=2                  solid.Q_eig (1) @ lambda=36, m=2 solid.Ws_tot (J) @ lambda=36, m=2 solid.freq (Hz) @ lambda=37, m=2                  solid.Q_eig (1) @ lambda=37, m=2 solid.Ws_tot (J) @ lambda=37, m=2 solid.freq (Hz) @ lambda=38, m=2                  solid.Q_eig (1) @ lambda=38, m=2 solid.Ws_tot (J) @ lambda=38, m=2 solid.freq (Hz) @ lambda=39, m=2                  solid.Q_eig (1) @ lambda=39, m=2 solid.Ws_tot (J) @ lambda=39, m=2 solid.freq (Hz) @ lambda=40, m=2                  solid.Q_eig (1) @ lambda=40, m=2 solid.Ws_tot (J) @ lambda=40, m=2 solid.freq (Hz) @ lambda=41, m=2                  solid.Q_eig (1) @ lambda=41, m=2 solid.Ws_tot (J) @ lambda=41, m=2 solid.freq (Hz) @ lambda=42, m=2                  solid.Q_eig (1) @ lambda=42, m=2 solid.Ws_tot (J) @ lambda=42, m=2 solid.freq (Hz) @ lambda=43, m=2                  solid.Q_eig (1) @ lambda=43, m=2 solid.Ws_tot (J) @ lambda=43, m=2 solid.freq (Hz) @ lambda=44, m=2                  solid.Q_eig (1) @ lambda=44, m=2 solid.Ws_tot (J) @ lambda=44, m=2 solid.freq (Hz) @ lambda=45, m=2                  solid.Q_eig (1) @ lambda=45, m=2 solid.Ws_tot (J) @ lambda=45, m=2 solid.freq (Hz) @ lambda=46, m=2                  solid.Q_eig (1) @ lambda=46, m=2 solid.Ws_tot (J) @ lambda=46, m=2 solid.freq (Hz) @ lambda=47, m=2                  solid.Q_eig (1) @ lambda=47, m=2 solid.Ws_tot (J) @ lambda=47, m=2 solid.freq (Hz) @ lambda=48, m=2                  solid.Q_eig (1) @ lambda=48, m=2 solid.Ws_tot (J) @ lambda=48, m=2 solid.freq (Hz) @ lambda=49, m=2                  solid.Q_eig (1) @ lambda=49, m=2 solid.Ws_tot (J) @ lambda=49, m=2 solid.freq (Hz) @ lambda=50, m=2                  solid.Q_eig (1) @ lambda=50, m=2 solid.Ws_tot (J) @ lambda=50, m=2 solid.freq (Hz) @ lambda=51, m=2                  solid.Q_eig (1) @ lambda=51, m=2 solid.Ws_tot (J) @ lambda=51, m=2 solid.freq (Hz) @ lambda=52, m=2                  solid.Q_eig (1) @ lambda=52, m=2 solid.Ws_tot (J) @ lambda=52, m=2 solid.freq (Hz) @ lambda=53, m=2                  solid.Q_eig (1) @ lambda=53, m=2 solid.Ws_tot (J) @ lambda=53, m=2 solid.freq (Hz) @ lambda=54, m=2                  solid.Q_eig (1) @ lambda=54, m=2 solid.Ws_tot (J) @ lambda=54, m=2 solid.freq (Hz) @ lambda=55, m=2                 